/*--------------------------------*- C++ -*----------------------------------*\
| =========                 |                                                 |
| \\      /  F ield         | OpenFOAM: The Open Source CFD Toolbox           |
|  \\    /   O peration     | Version:  dev                                   |
|   \\  /    A nd           | Web:      www.OpenFOAM.org                      |
|    \\/     M anipulation  |                                                 |
\*---------------------------------------------------------------------------*/
FoamFile
{
    version     2.0;
    format      ascii;
    class       volScalarField;
    location    "0";
    object      hTotal;
}
// * * * * * * * * * * * * * * * * * * * * * * * * * * * * * * * * * * * * * //

dimensions      [0 1 0 0 0 0 0];

internalField   nonuniform List<scalar> 
100
(
10000.1
10000.2
10000.3
10000.4
10000.6
10000.9
10001.3
10001.9
10002.9
10004.2
10006.3
10009.3
10013.8
10020.3
10029.9
10043.8
10063.6
10091.6
10129.8
10180.3
10243.3
10315.8
10389.9
10452.4
10488.7
10488.7
10452.4
10389.9
10315.8
10243.3
10180.3
10129.8
10091.6
10063.6
10043.8
10029.9
10020.3
10013.8
10009.3
10006.3
10004.2
10002.9
10001.9
10001.3
10000.9
10000.6
10000.4
10000.3
10000.2
10000.1
10000.1
10000.1
10000
10000
10000
10000
10000
10000
10000
10000
10000
10000
10000
10000
10000
10000
10000
10000
10000
10000
10000
10000
10000
10000
10000
10000
10000
10000
10000
10000
10000
10000
10000
10000
10000
10000
10000
10000
10000
10000
10000
10000
10000
10000
10000
10000
10000
10000
10000
10000
)
;

boundaryField
{
    y0
    {
        type            empty;
    }
    y1
    {
        type            empty;
    }
    inlet
    {
        type            cyclic;
    }
    outlet
    {
        type            cyclic;
    }
    z1
    {
        type            empty;
    }
    z0
    {
        type            empty;
    }
}


// ************************************************************************* //
