/*--------------------------------*- C++ -*----------------------------------*\
| =========                 |                                                 |
| \\      /  F ield         | OpenFOAM: The Open Source CFD Toolbox           |
|  \\    /   O peration     | Version:  dev                                   |
|   \\  /    A nd           | Web:      www.OpenFOAM.org                      |
|    \\/     M anipulation  |                                                 |
\*---------------------------------------------------------------------------*/
FoamFile
{
    version     2.0;
    format      ascii;
    class       volVectorField;
    location    "0";
    object      hU;
}
// * * * * * * * * * * * * * * * * * * * * * * * * * * * * * * * * * * * * * //

dimensions      [0 2 -1 0 0 0 0];

internalField   nonuniform List<vector> 
100
(
(42.6624 0 0)
(63.049 0 0)
(93.1746 0 0)
(137.689 0 0)
(203.456 0 0)
(300.61 0 0)
(444.093 0 0)
(655.927 0 0)
(968.513 0 0)
(1429.43 0 0)
(2108.3 0 0)
(3106.57 0 0)
(4570.99 0 0)
(6711.62 0 0)
(9824.37 0 0)
(14315.9 0 0)
(20723.6 0 0)
(29713.2 0 0)
(42017.8 0 0)
(58260.6 0 0)
(78589.7 0 0)
(102109 0 0)
(126284 0 0)
(146846 0 0)
(158848 0 0)
(158848 0 0)
(146846 0 0)
(126284 0 0)
(102109 0 0)
(78589.7 0 0)
(58260.6 0 0)
(42017.8 0 0)
(29713.2 0 0)
(20723.6 0 0)
(14315.9 0 0)
(9824.37 0 0)
(6711.62 0 0)
(4570.99 0 0)
(3106.57 0 0)
(2108.3 0 0)
(1429.43 0 0)
(968.513 0 0)
(655.927 0 0)
(444.093 0 0)
(300.61 0 0)
(203.456 0 0)
(137.689 0 0)
(93.1746 0 0)
(63.049 0 0)
(42.6624 0 0)
(20.2071 0 0)
(13.6727 0 0)
(9.25129 0 0)
(6.25961 0 0)
(4.23536 0 0)
(2.86571 0 0)
(1.93898 0 0)
(1.31194 0 0)
(0.887671 0 0)
(0.600608 0 0)
(0.580539 0 0)
(0.392799 0 0)
(0.265772 0 0)
(0.179824 0 0)
(0.12167 0 0)
(0.0823233 0 0)
(0.0557007 0 0)
(0.0376876 0 0)
(0.0254997 0 0)
(0.0172534 0 0)
(0.0116738 0 0)
(0.00789857 0 0)
(0.00534424 0 0)
(0.00361596 0 0)
(0.00244659 0 0)
(0.00165538 0 0)
(0.00112004 0 0)
(0.000757831 0 0)
(0.000512755 0 0)
(0.000346934 0 0)
(0.000234738 0 0)
(0.000158826 0 0)
(0.000107463 0 0)
(7.27101e-05 0 0)
(4.91962e-05 0 0)
(3.32866e-05 0 0)
(2.25219e-05 0 0)
(1.52385e-05 0 0)
(1.03105e-05 0 0)
(6.97616e-06 0 0)
(4.72012e-06 0 0)
(3.19367e-06 0 0)
(2.16086e-06 0 0)
(1.46206e-06 0 0)
(9.89237e-07 0 0)
(6.69325e-07 0 0)
(4.5287e-07 0 0)
(3.06416e-07 0 0)
(2.07323e-07 0 0)
(1.40276e-07 0 0)
)
;

boundaryField
{
    y0
    {
        type            empty;
    }
    y1
    {
        type            empty;
    }
    inlet
    {
        type            cyclic;
    }
    outlet
    {
        type            cyclic;
    }
    z1
    {
        type            empty;
    }
    z0
    {
        type            empty;
    }
}


// ************************************************************************* //
