/*--------------------------------*- C++ -*----------------------------------*\
| =========                 |                                                 |
| \\      /  F ield         | OpenFOAM: The Open Source CFD Toolbox           |
|  \\    /   O peration     | Version:  dev                                   |
|   \\  /    A nd           | Web:      www.OpenFOAM.org                      |
|    \\/     M anipulation  |                                                 |
\*---------------------------------------------------------------------------*/
FoamFile
{
    version     2.0;
    format      ascii;
    class       volVectorField;
    location    "0";
    object      hU;
}
// * * * * * * * * * * * * * * * * * * * * * * * * * * * * * * * * * * * * * //

dimensions      [0 2 -1 0 0 0 0];

internalField   nonuniform List<vector> 
100
(
(176898 0 0)
(51437.6 0 0)
(9530.19 0 0)
(1605.33 0 0)
(265.915 0 0)
(43.9802 0 0)
(7.28555 0 0)
(1.2094 0 0)
(0.201137 0 0)
(0.0335013 0 0)
(0.00558616 0 0)
(0.000932205 0 0)
(0.000155651 0 0)
(2.59991e-05 0 0)
(4.34386e-06 0 0)
(7.25887e-07 0 0)
(1.21314e-07 0 0)
(2.02762e-08 0 0)
(3.38909e-09 0 0)
(5.66489e-10 0 0)
(9.46911e-11 0 0)
(1.58282e-11 0 0)
(2.6458e-12 0 0)
(4.42265e-13 0 0)
(7.39281e-14 0 0)
(1.23577e-14 0 0)
(2.06568e-15 0 0)
(3.45293e-16 0 0)
(5.77182e-17 0 0)
(9.64799e-18 0 0)
(1.61273e-18 0 0)
(2.69577e-19 0 0)
(4.50615e-20 0 0)
(7.53228e-21 0 0)
(1.25906e-21 0 0)
(2.10459e-22 0 0)
(3.51793e-23 0 0)
(5.8804e-24 0 0)
(9.82937e-25 0 0)
(1.64302e-25 0 0)
(2.74639e-26 0 0)
(4.59071e-27 0 0)
(7.67356e-28 0 0)
(1.28267e-28 0 0)
(2.14403e-29 0 0)
(3.58383e-30 0 0)
(5.9905e-31 0 0)
(1.00133e-31 0 0)
(1.67377e-32 0 0)
(2.79776e-33 0 0)
(1.16914e-34 0 0)
(1.95425e-35 0 0)
(3.2666e-36 0 0)
(5.46022e-37 0 0)
(9.12693e-38 0 0)
(1.52559e-38 0 0)
(2.55008e-39 0 0)
(4.26253e-40 0 0)
(7.12495e-41 0 0)
(1.19096e-41 0 0)
(7.96286e-42 0 0)
(1.33102e-42 0 0)
(2.22483e-43 0 0)
(3.71886e-44 0 0)
(6.21618e-45 0 0)
(1.03905e-45 0 0)
(1.7368e-46 0 0)
(2.90311e-47 0 0)
(4.85262e-48 0 0)
(8.11127e-49 0 0)
(1.35582e-49 0 0)
(2.26629e-50 0 0)
(3.78815e-51 0 0)
(6.33199e-52 0 0)
(1.05841e-52 0 0)
(1.76915e-53 0 0)
(2.95718e-54 0 0)
(4.943e-55 0 0)
(8.26233e-56 0 0)
(1.38107e-56 0 0)
(2.30849e-57 0 0)
(3.85869e-58 0 0)
(6.44988e-59 0 0)
(1.07811e-59 0 0)
(1.80209e-60 0 0)
(3.01223e-61 0 0)
(5.03501e-62 0 0)
(8.41613e-63 0 0)
(1.40677e-63 0 0)
(2.35145e-64 0 0)
(3.9305e-65 0 0)
(6.56992e-66 0 0)
(1.09818e-66 0 0)
(1.83562e-67 0 0)
(3.06828e-68 0 0)
(5.1287e-69 0 0)
(8.57273e-70 0 0)
(1.43295e-70 0 0)
(2.3952e-71 0 0)
(4.00363e-72 0 0)
)
;

boundaryField
{
    y0
    {
        type            empty;
    }
    y1
    {
        type            empty;
    }
    inlet
    {
        type            cyclic;
    }
    outlet
    {
        type            cyclic;
    }
    z1
    {
        type            empty;
    }
    z0
    {
        type            empty;
    }
}


// ************************************************************************* //
