/*--------------------------------*- C++ -*----------------------------------*\
| =========                 |                                                 |
| \\      /  F ield         | OpenFOAM: The Open Source CFD Toolbox           |
|  \\    /   O peration     | Version:  dev                                   |
|   \\  /    A nd           | Web:      www.OpenFOAM.org                      |
|    \\/     M anipulation  |                                                 |
\*---------------------------------------------------------------------------*/
FoamFile
{
    version     2.0;
    format      ascii;
    class       volVectorField;
    location    "0";
    object      U;
}
// * * * * * * * * * * * * * * * * * * * * * * * * * * * * * * * * * * * * * //

dimensions      [0 1 -1 0 0 0 0];

internalField   nonuniform List<vector> 
100
(
(0.00426619 0 0)
(0.00630478 0 0)
(0.00931722 0 0)
(0.0137683 0 0)
(0.0203444 0 0)
(0.0300583 0 0)
(0.0444035 0 0)
(0.0655801 0 0)
(0.0968237 0 0)
(0.142882 0 0)
(0.210697 0 0)
(0.310368 0 0)
(0.456471 0 0)
(0.669801 0 0)
(0.979509 0 0)
(1.42535 0 0)
(2.05926 0 0)
(2.94436 0 0)
(4.14792 0 0)
(5.72285 0 0)
(7.67227 0 0)
(9.89825 0 0)
(12.1545 0 0)
(14.049 0 0)
(15.1446 0 0)
(15.1446 0 0)
(14.049 0 0)
(12.1545 0 0)
(9.89825 0 0)
(7.67227 0 0)
(5.72285 0 0)
(4.14792 0 0)
(2.94436 0 0)
(2.05926 0 0)
(1.42535 0 0)
(0.979509 0 0)
(0.669801 0 0)
(0.456471 0 0)
(0.310368 0 0)
(0.210697 0 0)
(0.142882 0 0)
(0.0968237 0 0)
(0.0655801 0 0)
(0.0444035 0 0)
(0.0300583 0 0)
(0.0203444 0 0)
(0.0137683 0 0)
(0.00931722 0 0)
(0.00630478 0 0)
(0.00426619 0 0)
(0.00288669 0 0)
(0.00195323 0 0)
(0.00132161 0 0)
(0.000894227 0 0)
(0.00060505 0 0)
(0.000409386 0 0)
(0.000276996 0 0)
(0.000187419 0 0)
(0.00012681 0 0)
(8.58011e-05 0 0)
(5.80539e-05 0 0)
(3.92799e-05 0 0)
(2.65772e-05 0 0)
(1.79824e-05 0 0)
(1.2167e-05 0 0)
(8.23233e-06 0 0)
(5.57007e-06 0 0)
(3.76876e-06 0 0)
(2.54997e-06 0 0)
(1.72534e-06 0 0)
(1.16738e-06 0 0)
(7.89857e-07 0 0)
(5.34424e-07 0 0)
(3.61596e-07 0 0)
(2.44659e-07 0 0)
(1.65538e-07 0 0)
(1.12004e-07 0 0)
(7.57831e-08 0 0)
(5.12755e-08 0 0)
(3.46934e-08 0 0)
(2.34738e-08 0 0)
(1.58826e-08 0 0)
(1.07463e-08 0 0)
(7.27101e-09 0 0)
(4.91962e-09 0 0)
(3.32866e-09 0 0)
(2.25219e-09 0 0)
(1.52385e-09 0 0)
(1.03105e-09 0 0)
(6.97616e-10 0 0)
(4.72012e-10 0 0)
(3.19367e-10 0 0)
(2.16086e-10 0 0)
(1.46206e-10 0 0)
(9.89237e-11 0 0)
(6.69325e-11 0 0)
(4.5287e-11 0 0)
(3.06416e-11 0 0)
(2.07323e-11 0 0)
(1.40276e-11 0 0)
)
;

boundaryField
{
    y0
    {
        type            empty;
    }
    y1
    {
        type            empty;
    }
    inlet
    {
        type            cyclic;
    }
    outlet
    {
        type            cyclic;
    }
    z1
    {
        type            empty;
    }
    z0
    {
        type            empty;
    }
}


// ************************************************************************* //
