/*--------------------------------*- C++ -*----------------------------------*\
| =========                 |                                                 |
| \\      /  F ield         | OpenFOAM: The Open Source CFD Toolbox           |
|  \\    /   O peration     | Version:  dev                                   |
|   \\  /    A nd           | Web:      www.OpenFOAM.org                      |
|    \\/     M anipulation  |                                                 |
\*---------------------------------------------------------------------------*/
FoamFile
{
    version     2.0;
    format      ascii;
    class       volVectorField;
    location    "0";
    object      U;
}
// * * * * * * * * * * * * * * * * * * * * * * * * * * * * * * * * * * * * * //

dimensions      [0 1 -1 0 0 0 0];

internalField   nonuniform List<vector> 
100
(
(16.098 0 0)
(4.71298 0 0)
(0.883609 0 0)
(0.150962 0 0)
(0.025358 0 0)
(0.00424565 0 0)
(0.000710285 0 0)
(0.000118795 0 0)
(1.98655e-05 0 0)
(3.32171e-06 0 0)
(5.55384e-07 0 0)
(9.28548e-08 0 0)
(1.55238e-08 0 0)
(2.59526e-09 0 0)
(4.33864e-10 0 0)
(7.25301e-11 0 0)
(1.21248e-11 0 0)
(2.02688e-12 0 0)
(3.38826e-13 0 0)
(5.66396e-14 0 0)
(9.46807e-15 0 0)
(1.5827e-15 0 0)
(2.64566e-16 0 0)
(4.4225e-17 0 0)
(7.39264e-18 0 0)
(1.23575e-18 0 0)
(2.06566e-19 0 0)
(3.45291e-20 0 0)
(5.77179e-21 0 0)
(9.64796e-22 0 0)
(1.61272e-22 0 0)
(2.69577e-23 0 0)
(4.50614e-24 0 0)
(7.53228e-25 0 0)
(1.25906e-25 0 0)
(2.10459e-26 0 0)
(3.51793e-27 0 0)
(5.8804e-28 0 0)
(9.82937e-29 0 0)
(1.64302e-29 0 0)
(2.74639e-30 0 0)
(4.59071e-31 0 0)
(7.67356e-32 0 0)
(1.28267e-32 0 0)
(2.14403e-33 0 0)
(3.58383e-34 0 0)
(5.9905e-35 0 0)
(1.00133e-35 0 0)
(1.67377e-36 0 0)
(2.79776e-37 0 0)
(4.67655e-38 0 0)
(7.81701e-39 0 0)
(1.30664e-39 0 0)
(2.18409e-40 0 0)
(3.65077e-41 0 0)
(6.10238e-42 0 0)
(1.02003e-42 0 0)
(1.70501e-43 0 0)
(2.84998e-44 0 0)
(4.76382e-45 0 0)
(7.96286e-46 0 0)
(1.33102e-46 0 0)
(2.22483e-47 0 0)
(3.71886e-48 0 0)
(6.21618e-49 0 0)
(1.03905e-49 0 0)
(1.7368e-50 0 0)
(2.90311e-51 0 0)
(4.85262e-52 0 0)
(8.11127e-53 0 0)
(1.35582e-53 0 0)
(2.26629e-54 0 0)
(3.78815e-55 0 0)
(6.33199e-56 0 0)
(1.05841e-56 0 0)
(1.76915e-57 0 0)
(2.95718e-58 0 0)
(4.943e-59 0 0)
(8.26233e-60 0 0)
(1.38107e-60 0 0)
(2.30849e-61 0 0)
(3.85869e-62 0 0)
(6.44988e-63 0 0)
(1.07811e-63 0 0)
(1.80209e-64 0 0)
(3.01223e-65 0 0)
(5.03501e-66 0 0)
(8.41613e-67 0 0)
(1.40677e-67 0 0)
(2.35145e-68 0 0)
(3.9305e-69 0 0)
(6.56992e-70 0 0)
(1.09818e-70 0 0)
(1.83562e-71 0 0)
(3.06828e-72 0 0)
(5.1287e-73 0 0)
(8.57273e-74 0 0)
(1.43295e-74 0 0)
(2.3952e-75 0 0)
(4.00363e-76 0 0)
)
;

boundaryField
{
    y0
    {
        type            empty;
    }
    y1
    {
        type            empty;
    }
    inlet
    {
        type            calculated;
        value           uniform (0 0 0);
    }
    outlet
    {
        type            calculated;
        value           uniform (0 0 0);
    }
    z1
    {
        type            empty;
    }
    z0
    {
        type            empty;
    }
}


// ************************************************************************* //
